LAMMPS data file generated with LigParGen (israel.cabezadevaca@yale.edu)

      12 atoms
      12 bonds
      21 angles
      18 dihedrals
      12 atom types
      12 bond types
      21 angle types
      18 dihedral types

   -1.981000    48.019000 xlo xhi
   -1.308000    48.692000 ylo yhi
   -1.222000    48.778000 zlo zhi

Masses

       1     12.011
       2     15.999
       3     15.999
       4     12.011
       5     15.999
       6     12.011
       7      1.008
       8      1.008
       9      1.008
      10      1.008
      11      1.008
      12      1.008

Pair Coeffs

       1      0.066  3.5000000
       2      0.140  2.9000000
       3      0.140  2.9000000
       4      0.066  3.5000000
       5      0.140  2.9000000
       6      0.066  3.5000000
       7      0.030  2.5000000
       8      0.030  2.5000000
       9      0.030  2.5000000
      10      0.030  2.5000000
      11      0.030  2.5000000
      12      0.030  2.5000000

Bond Coeffs

       1   320.0000     1.3800
       2   320.0000     1.3800
       3   320.0000     1.3800
       4   320.0000     1.3800
       5   320.0000     1.3800
       6   340.0000     1.0900
       7   340.0000     1.0900
       8   340.0000     1.0900
       9   340.0000     1.0900
      10   340.0000     1.0900
      11   340.0000     1.0900
      12   320.0000     1.3800

Angle Coeffs

       1     92.600    111.550
       2     60.000    109.500
       3     92.600    111.550
       4     60.000    109.500
       5     35.000    109.500
       6     35.000    109.500
       7     35.000    109.500
       8     35.000    109.500
       9     35.000    109.500
      10     35.000    109.500
      11     35.000    109.500
      12     35.000    109.500
      13     35.000    109.500
      14     35.000    109.500
      15     60.000    109.500
      16     35.000    109.500
      17     33.000    109.500
      18     35.000    109.500
      19     33.000    109.500
      20     33.000    109.500
      21     92.600    111.550

Dihedral Coeffs

       1     -0.375     -1.358      0.004      0.000
       2     -0.375     -1.358      0.004      0.000
       3     -0.375     -1.358      0.004      0.000
       4      0.000      0.000      0.760      0.000
       5      0.000      0.000      0.760      0.000
       6      0.000      0.000      0.760      0.000
       7      0.000      0.000      0.760      0.000
       8      0.000      0.000      0.760      0.000
       9      0.000      0.000      0.760      0.000
      10     -0.375     -1.358      0.004      0.000
      11      0.000      0.000      0.760      0.000
      12      0.000      0.000      0.760      0.000
      13      0.000      0.000      0.760      0.000
      14      0.000      0.000      0.760      0.000
      15      0.000      0.000      0.760      0.000
      16      0.000      0.000      0.760      0.000
      17     -0.375     -1.358      0.004      0.000
      18     -0.375     -1.358      0.004      0.000

Atoms

     1      1      1   0.203199 -1.10100 -0.74400 -0.19200
     2      1      2  -0.405427 -1.18600  0.59700 -0.24400
     3      1      3  -0.402962  0.01200 -1.30800  0.33500
     4      1      4   0.182365  1.13700 -0.56000  0.40700
     5      1      5  -0.399119  1.13000  0.61800 -0.29600
     6      1      6   0.189137 -0.04800  1.32200 -0.23800
     7      1      7   0.109668 -0.06100  2.00400 -1.13700
     8      1      8   0.109668 -0.02400  1.93700  0.70300
     9      1      9   0.100367 -1.98100 -1.12400  0.41100
    10      1     10   0.100367 -1.29200 -1.16800 -1.22200
    11      1     11   0.106368  1.98900 -1.17600 -0.00700
    12      1     12   0.106369  1.42600 -0.39800  1.48100

Bonds

     1      1      2      1
     2      2      3      1
     3      3      4      3
     4      4      5      4
     5      5      6      5
     6      6      7      6
     7      7      8      6
     8      8      9      1
     9      9     10      1
    10     10     11      4
    11     11     12      4
    12     12      6      2

Angles

     1      1      3      1      2
     2      2      4      3      1
     3      3      5      4      3
     4      4      6      5      4
     5      5      7      6      5
     6      6      8      6      5
     7      7      9      1      2
     8      8     10      1      2
     9      9     11      4      3
    10     10     12      4      3
    11     11      9      1      3
    12     12     10      1      3
    13     13     11      4      5
    14     14     12      4      5
    15     15      1      2      6
    16     16      2      6      7
    17     17      8      6      7
    18     18      2      6      8
    19     19     10      1      9
    20     20     12      4     11
    21     21      5      6      2

Dihedrals

     1      1      4      3      1      2
     2      2      5      4      3      1
     3      3      6      5      4      3
     4      4      7      6      5      4
     5      5      8      6      5      4
     6      6      9      1      2      6
     7      7     10      1      2      6
     8      8     11      4      3      1
     9      9     12      4      3      1
    10     10      6      2      1      3
    11     11      9      1      3      4
    12     12     10      1      3      4
    13     13     11      4      5      6
    14     14     12      4      5      6
    15     15      1      2      6      7
    16     16      1      2      6      8
    17     17      4      5      6      2
    18     18      1      2      6      5


