LAMMPS data file generated with LigParGen (israel.cabezadevaca@yale.edu)

      16 atoms
      16 bonds
      30 angles
      42 dihedrals
       2 impropers

      16 atom types
      16 bond types
      30 angle types
      42 dihedral types
       2 improper types

   -2.508000    47.492000 xlo xhi
   -2.203000    47.797000 ylo yhi
   -1.491000    48.509000 zlo zhi

Masses

       1     12.011
       2     12.011
       3     15.999
       4     12.011
       5     12.011
       6     12.011
       7     12.011
       8     15.999
       9      1.008
      10      1.008
      11      1.008
      12      1.008
      13      1.008
      14      1.008
      15      1.008
      16      1.008

Pair Coeffs

       1      0.070  3.5500000
       2      0.066  3.5000000
       3      0.210  2.9600000
       4      0.066  3.5000000
       5      0.066  3.5000000
       6      0.070  3.5500000
       7      0.066  3.5000000
       8      0.210  2.9600000
       9      0.030  2.5000000
      10      0.030  2.5000000
      11      0.030  2.5000000
      12      0.030  2.5000000
      13      0.030  2.5000000
      14      0.030  2.5000000
      15      0.030  2.5000000
      16      0.030  2.5000000

Bond Coeffs

       1   317.0000     1.5220
       2   570.0000     1.2290
       3   317.0000     1.5220
       4   268.0000     1.5290
       5   317.0000     1.5220
       6   317.0000     1.5220
       7   570.0000     1.2290
       8   340.0000     1.0900
       9   340.0000     1.0900
      10   340.0000     1.0900
      11   340.0000     1.0900
      12   340.0000     1.0900
      13   340.0000     1.0900
      14   340.0000     1.0900
      15   340.0000     1.0900
      16   268.0000     1.5290

Angle Coeffs

       1     80.000    120.400
       2     70.000    116.000
       3     63.000    111.100
       4     63.000    111.100
       5     70.000    116.000
       6     80.000    120.400
       7     35.000    109.500
       8     35.000    109.500
       9     35.000    109.500
      10     35.000    109.500
      11     35.000    109.500
      12     35.000    109.500
      13     37.500    110.700
      14     37.500    110.700
      15     80.000    120.400
      16     37.500    110.700
      17     37.500    110.700
      18     35.000    109.500
      19     35.000    109.500
      20     80.000    120.400
      21     63.000    111.100
      22     37.500    110.700
      23     37.500    110.700
      24     37.500    110.700
      25     33.000    107.800
      26     37.500    110.700
      27     33.000    107.800
      28     33.000    107.800
      29     33.000    107.800
      30     63.000    111.100

Dihedral Coeffs

       1      1.454     -0.144     -0.775      0.000
       2     -0.550      0.000      1.000      0.000
       3      1.454     -0.144     -0.775      0.000
       4      0.000      0.000      0.000      0.000
       5      0.000      0.000      0.275      0.000
       6      0.000      0.000      0.275      0.000
       7      0.000      0.000      0.000      0.000
       8      0.000      0.000      0.000      0.000
       9      0.000      0.000      0.275      0.000
      10      0.000      0.000      0.275      0.000
      11      0.000      0.000     -0.100      0.000
      12      0.000      0.000     -0.100      0.000
      13      0.000      0.000      0.000      0.000
      14      0.000      0.000      0.000      0.000
      15      0.000      0.000      0.000      0.000
      16      0.000      0.000      0.000      0.000
      17      1.454     -0.144     -0.775      0.000
      18      0.000      0.000      0.275      0.000
      19      0.000      0.000      0.275      0.000
      20      0.000      0.000     -0.100      0.000
      21      0.000      0.000     -0.100      0.000
      22      0.000      0.000      0.275      0.000
      23      0.000      0.000      0.275      0.000
      24      0.000      0.000      0.000      0.000
      25      0.000      0.000      0.000      0.000
      26      0.000      0.000      0.000      0.000
      27      0.000      0.000      0.000      0.000
      28      0.000      0.000      0.000      0.000
      29      0.000      0.000     -0.100      0.000
      30      0.000      0.000      0.300      0.000
      31      0.000      0.000      0.300      0.000
      32      0.000      0.000     -0.100      0.000
      33      0.000      0.000      0.300      0.000
      34      0.000      0.000      0.300      0.000
      35      0.000      0.000     -0.100      0.000
      36      0.000      0.000     -0.100      0.000
      37      0.000      0.000      0.300      0.000
      38      0.000      0.000      0.300      0.000
      39      0.000      0.000      0.300      0.000
      40      0.000      0.000      0.300      0.000
      41      1.454     -0.144     -0.775      0.000
      42     -0.550      0.000      1.000      0.000

Improper Coeffs

       1     10.500      -1       2
       2     10.500      -1       2

Atoms

     1      1      1   0.376308 -1.36000 -0.03400  0.10400
     2      1      2  -0.242277 -0.62200 -1.23500  0.58500
     3      1      3  -0.438211 -2.50800 -0.22800 -0.26400
     4      1      4  -0.238079 -0.72100  1.28100  0.08600
     5      1      5  -0.240572  0.72800  1.23200 -0.36500
     6      1      6   0.371232  1.38400 -0.04800  0.02900
     7      1      7  -0.254418  0.63400 -1.29400 -0.29600
     8      1      8  -0.427124  2.45900 -0.10200  0.58000
     9      1      9   0.135003  1.21500 -2.20300 -0.12500
    10      1     10   0.135003  0.24800 -1.20900 -1.34700
    11      1     11   0.138769 -1.16900 -2.16700  0.47100
    12      1     12   0.138769 -0.25000 -1.09500  1.62100
    13      1     13   0.140153 -0.76900  1.81200  1.07900
    14      1     14   0.140153 -1.25700  1.95300 -0.62000
    15      1     15   0.132646  0.70600  1.21300 -1.49100
    16      1     16   0.132645  1.28300  2.12200 -0.04500

Bonds

     1      1      2      1
     2      2      3      1
     3      3      4      1
     4      4      5      4
     5      5      6      5
     6      6      7      6
     7      7      8      6
     8      8      9      7
     9      9     10      7
    10     10     11      2
    11     11     12      2
    12     12     13      4
    13     13     14      4
    14     14     15      5
    15     15     16      5
    16     16      7      2

Angles

     1      1      3      1      2
     2      2      4      1      2
     3      3      5      4      1
     4      4      6      5      4
     5      5      7      6      5
     6      6      8      6      5
     7      7      9      7      6
     8      8     10      7      6
     9      9     11      2      1
    10     10     12      2      1
    11     11     13      4      1
    12     12     14      4      1
    13     13     15      5      4
    14     14     16      5      4
    15     15      4      1      3
    16     16     13      4      5
    17     17     14      4      5
    18     18     15      5      6
    19     19     16      5      6
    20     20      8      6      7
    21     21      1      2      7
    22     22     11      2      7
    23     23     12      2      7
    24     24      2      7      9
    25     25     10      7      9
    26     26      2      7     10
    27     27     12      2     11
    28     28     14      4     13
    29     29     16      5     15
    30     30      6      7      2

Dihedrals

     1      1      5      4      1      2
     2      2      6      5      4      1
     3      3      7      6      5      4
     4      4      8      6      5      4
     5      5      9      7      6      5
     6      6     10      7      6      5
     7      7     11      2      1      3
     8      8     12      2      1      3
     9      9     13      4      1      2
    10     10     14      4      1      2
    11     11     15      5      4      1
    12     12     16      5      4      1
    13     13      7      2      1      3
    14     14      5      4      1      3
    15     15     13      4      1      3
    16     16     14      4      1      3
    17     17      7      2      1      4
    18     18     11      2      1      4
    19     19     12      2      1      4
    20     20     13      4      5      6
    21     21     14      4      5      6
    22     22     15      5      6      7
    23     23     16      5      6      7
    24     24     15      5      6      8
    25     25     16      5      6      8
    26     26      2      7      6      8
    27     27      9      7      6      8
    28     28     10      7      6      8
    29     29      1      2      7      9
    30     30     11      2      7      9
    31     31     12      2      7      9
    32     32      1      2      7     10
    33     33     11      2      7     10
    34     34     12      2      7     10
    35     35      6      7      2     11
    36     36      6      7      2     12
    37     37     15      5      4     13
    38     38     16      5      4     13
    39     39     15      5      4     14
    40     40     16      5      4     14
    41     41      5      6      7      2
    42     42      1      2      7      6

Impropers

     1      1      2      1      3      4
     2      2      5      6      7      8


