LAMMPS data file generated with LigParGen (israel.cabezadevaca@yale.edu)

       5 atoms
       4 bonds
       4 angles
       2 dihedrals
       1 impropers

       5 atom types
       4 bond types
       4 angle types
       2 dihedral types
       1 improper types

   -1.137000    48.863000 xlo xhi
   -0.866000    49.134000 ylo yhi
   -0.030000    49.970000 zlo zhi

Masses

       1     12.011
       2     14.007
       3     14.007
       4      1.008
       5      1.008

Pair Coeffs

       1      0.066  3.3000000
       2      0.170  3.2000000
       3      0.170  3.3000000
       4      0.000  0.0000000
       5      0.000  0.0000000

Bond Coeffs

       1   650.0000     1.1570
       2   390.0000     1.4700
       3   434.0000     1.0100
       4   434.0000     1.0100

Angle Coeffs

       1    150.000    180.000
       2     45.250    109.400
       3     45.250    109.400
       4     43.600    106.400

Dihedral Coeffs

       1      0.000      3.800      0.000      0.000
       2      0.000      3.800      0.000      0.000

Improper Coeffs

       1      0.000      -1       2

Atoms

     1      1      1   0.464779  0.83000 -0.02200  0.00800
     2      1      2  -0.372203  1.98400 -0.03200  0.01100
     3      1      3  -1.058755 -0.57600  0.01100 -0.00300
     4      1      4   0.483090 -1.10100  0.90900 -0.03000
     5      1      5   0.483089 -1.13700 -0.86600  0.01500

Bonds

     1      1      2      1
     2      2      3      1
     3      3      4      3
     4      4      5      3

Angles

     1      1      3      1      2
     2      2      4      3      1
     3      3      5      3      1
     4      4      5      3      4

Dihedrals

     1      1      4      3      1      2
     2      2      5      3      1      2

Impropers

     1      1      1      3      4      5


