
Host: ds1

Timers On : Mon Feb 28 13:57:44 2022
Timers Off: Mon Feb 28 13:57:46 2022

Wall Time:        1.24 seconds

                                                       Time (seconds)
Module                                       User      System        Wall        Calls

--------------------------------------------------------------------------------------

**************************************************************************************

Host: ds1

Timers On : Mon Feb 28 13:57:46 2022
Timers Off: Mon Feb 28 13:57:47 2022

Wall Time:        0.78 seconds

                                                       Time (seconds)
Module                                       User      System        Wall        Calls

--------------------------------------------------------------------------------------

**************************************************************************************

Host: ds1

Timers On : Mon Feb 28 13:57:48 2022
Timers Off: Mon Feb 28 13:57:48 2022

Wall Time:        0.74 seconds

                                                       Time (seconds)
Module                                       User      System        Wall        Calls

--------------------------------------------------------------------------------------

**************************************************************************************

Host: ds1

Timers On : Mon Feb 28 13:57:49 2022
Timers Off: Mon Feb 28 13:57:50 2022

Wall Time:        0.77 seconds

                                                       Time (seconds)
Module                                       User      System        Wall        Calls

--------------------------------------------------------------------------------------

**************************************************************************************

Host: ds1

Timers On : Mon Feb 28 13:57:51 2022
Timers Off: Mon Feb 28 13:57:51 2022

Wall Time:        0.84 seconds

                                                       Time (seconds)
Module                                       User      System        Wall        Calls

--------------------------------------------------------------------------------------

**************************************************************************************

Host: ds1

Timers On : Mon Feb 28 13:57:52 2022
Timers Off: Mon Feb 28 13:57:53 2022

Wall Time:        0.69 seconds

                                                       Time (seconds)
Module                                       User      System        Wall        Calls

--------------------------------------------------------------------------------------

**************************************************************************************

Host: ds1

Timers On : Mon Feb 28 13:57:54 2022
Timers Off: Mon Feb 28 13:57:55 2022

Wall Time:        0.81 seconds

                                                       Time (seconds)
Module                                       User      System        Wall        Calls

--------------------------------------------------------------------------------------

**************************************************************************************

Host: ds1

Timers On : Mon Feb 28 13:57:59 2022
Timers Off: Mon Feb 28 13:58:00 2022

Wall Time:        0.93 seconds

                                                       Time (seconds)
Module                                       User      System        Wall        Calls

--------------------------------------------------------------------------------------

**************************************************************************************

Host: ds1

Timers On : Mon Feb 28 13:58:01 2022
Timers Off: Mon Feb 28 13:58:01 2022

Wall Time:        0.69 seconds

                                                       Time (seconds)
Module                                       User      System        Wall        Calls

--------------------------------------------------------------------------------------

**************************************************************************************

Host: ds1

Timers On : Mon Feb 28 13:58:02 2022
Timers Off: Mon Feb 28 13:58:03 2022

Wall Time:        0.74 seconds

                                                       Time (seconds)
Module                                       User      System        Wall        Calls

--------------------------------------------------------------------------------------

**************************************************************************************

Host: ds1

Timers On : Mon Feb 28 13:58:03 2022
Timers Off: Mon Feb 28 13:58:04 2022

Wall Time:        0.83 seconds

                                                       Time (seconds)
Module                                       User      System        Wall        Calls

--------------------------------------------------------------------------------------

**************************************************************************************

Host: ds1

Timers On : Mon Feb 28 13:58:05 2022
Timers Off: Mon Feb 28 13:58:06 2022

Wall Time:        0.83 seconds

                                                       Time (seconds)
Module                                       User      System        Wall        Calls

--------------------------------------------------------------------------------------

**************************************************************************************

Host: ds1

Timers On : Mon Feb 28 14:05:56 2022
Timers Off: Mon Feb 28 14:06:02 2022

Wall Time:        6.55 seconds

                                                       Time (seconds)
Module                                       User      System        Wall        Calls

--------------------------------------------------------------------------------------

**************************************************************************************

Host: ds1

Timers On : Mon Feb 28 14:06:03 2022
Timers Off: Mon Feb 28 14:06:11 2022

Wall Time:        7.85 seconds

                                                       Time (seconds)
Module                                       User      System        Wall        Calls

--------------------------------------------------------------------------------------

**************************************************************************************

Host: ds1

Timers On : Mon Feb 28 14:06:12 2022
Timers Off: Mon Feb 28 14:06:18 2022

Wall Time:        6.53 seconds

                                                       Time (seconds)
Module                                       User      System        Wall        Calls

--------------------------------------------------------------------------------------

**************************************************************************************

Host: ds1

Timers On : Mon Feb 28 14:06:19 2022
Timers Off: Mon Feb 28 14:06:24 2022

Wall Time:        5.59 seconds

                                                       Time (seconds)
Module                                       User      System        Wall        Calls

--------------------------------------------------------------------------------------

**************************************************************************************

Host: ds1

Timers On : Mon Feb 28 14:06:25 2022
Timers Off: Mon Feb 28 14:06:32 2022

Wall Time:        6.97 seconds

                                                       Time (seconds)
Module                                       User      System        Wall        Calls

--------------------------------------------------------------------------------------

**************************************************************************************

Host: ds1

Timers On : Mon Feb 28 14:06:33 2022
Timers Off: Mon Feb 28 14:06:39 2022

Wall Time:        6.49 seconds

                                                       Time (seconds)
Module                                       User      System        Wall        Calls

--------------------------------------------------------------------------------------

**************************************************************************************

Host: ds1

Timers On : Mon Feb 28 14:06:40 2022
Timers Off: Mon Feb 28 14:06:45 2022

Wall Time:        4.81 seconds

                                                       Time (seconds)
Module                                       User      System        Wall        Calls

--------------------------------------------------------------------------------------

**************************************************************************************

Host: ds1

Timers On : Mon Feb 28 14:06:45 2022
Timers Off: Mon Feb 28 14:06:50 2022

Wall Time:        4.77 seconds

                                                       Time (seconds)
Module                                       User      System        Wall        Calls

--------------------------------------------------------------------------------------

**************************************************************************************

Host: ds1

Timers On : Mon Feb 28 14:06:51 2022
Timers Off: Mon Feb 28 14:06:58 2022

Wall Time:        7.52 seconds

                                                       Time (seconds)
Module                                       User      System        Wall        Calls

--------------------------------------------------------------------------------------

**************************************************************************************

Host: ds1

Timers On : Mon Feb 28 14:06:59 2022
Timers Off: Mon Feb 28 14:07:07 2022

Wall Time:        7.72 seconds

                                                       Time (seconds)
Module                                       User      System        Wall        Calls

--------------------------------------------------------------------------------------

**************************************************************************************

Host: ds1

Timers On : Mon Feb 28 14:07:07 2022
Timers Off: Mon Feb 28 14:07:13 2022

Wall Time:        6.22 seconds

                                                       Time (seconds)
Module                                       User      System        Wall        Calls

--------------------------------------------------------------------------------------

**************************************************************************************

Host: ds1

Timers On : Mon Feb 28 14:07:14 2022
Timers Off: Mon Feb 28 14:07:21 2022

Wall Time:        6.92 seconds

                                                       Time (seconds)
Module                                       User      System        Wall        Calls

--------------------------------------------------------------------------------------

**************************************************************************************

Host: ds1

Timers On : Mon Feb 28 14:07:22 2022
Timers Off: Mon Feb 28 14:07:28 2022

Wall Time:        6.37 seconds

                                                       Time (seconds)
Module                                       User      System        Wall        Calls

--------------------------------------------------------------------------------------

**************************************************************************************

Host: ds1

Timers On : Mon Feb 28 14:07:29 2022
Timers Off: Mon Feb 28 14:07:36 2022

Wall Time:        7.61 seconds

                                                       Time (seconds)
Module                                       User      System        Wall        Calls

--------------------------------------------------------------------------------------

**************************************************************************************

Host: ds1

Timers On : Mon Feb 28 14:07:37 2022
Timers Off: Mon Feb 28 14:07:44 2022

Wall Time:        7.02 seconds

                                                       Time (seconds)
Module                                       User      System        Wall        Calls

--------------------------------------------------------------------------------------

**************************************************************************************

Host: ds1

Timers On : Mon Feb 28 14:07:45 2022
Timers Off: Mon Feb 28 14:07:45 2022

Wall Time:        0.86 seconds

                                                       Time (seconds)
Module                                       User      System        Wall        Calls

--------------------------------------------------------------------------------------

**************************************************************************************

Host: ds1

Timers On : Mon Feb 28 14:07:46 2022
Timers Off: Mon Feb 28 14:07:53 2022

Wall Time:        6.79 seconds

                                                       Time (seconds)
Module                                       User      System        Wall        Calls

--------------------------------------------------------------------------------------

**************************************************************************************

Host: ds1

Timers On : Mon Feb 28 14:07:54 2022
Timers Off: Mon Feb 28 14:08:00 2022

Wall Time:        6.38 seconds

                                                       Time (seconds)
Module                                       User      System        Wall        Calls

--------------------------------------------------------------------------------------

**************************************************************************************

Host: ds1

Timers On : Mon Feb 28 14:08:01 2022
Timers Off: Mon Feb 28 14:08:07 2022

Wall Time:        6.62 seconds

                                                       Time (seconds)
Module                                       User      System        Wall        Calls

--------------------------------------------------------------------------------------

**************************************************************************************

Host: ds1

Timers On : Mon Feb 28 14:08:08 2022
Timers Off: Mon Feb 28 14:08:13 2022

Wall Time:        5.13 seconds

                                                       Time (seconds)
Module                                       User      System        Wall        Calls

--------------------------------------------------------------------------------------

**************************************************************************************

Host: ds1

Timers On : Mon Feb 28 14:08:14 2022
Timers Off: Mon Feb 28 14:08:19 2022

Wall Time:        5.18 seconds

                                                       Time (seconds)
Module                                       User      System        Wall        Calls

--------------------------------------------------------------------------------------

**************************************************************************************

Host: ds1

Timers On : Mon Feb 28 14:08:19 2022
Timers Off: Mon Feb 28 14:08:28 2022

Wall Time:        8.56 seconds

                                                       Time (seconds)
Module                                       User      System        Wall        Calls

--------------------------------------------------------------------------------------

**************************************************************************************

Host: ds1

Timers On : Mon Feb 28 14:08:29 2022
Timers Off: Mon Feb 28 14:08:35 2022

Wall Time:        5.82 seconds

                                                       Time (seconds)
Module                                       User      System        Wall        Calls

--------------------------------------------------------------------------------------

**************************************************************************************

Host: ds1

Timers On : Mon Feb 28 14:08:35 2022
Timers Off: Mon Feb 28 14:08:42 2022

Wall Time:        6.63 seconds

                                                       Time (seconds)
Module                                       User      System        Wall        Calls

--------------------------------------------------------------------------------------

**************************************************************************************

Host: ds1

Timers On : Mon Feb 28 14:08:42 2022
Timers Off: Mon Feb 28 14:08:51 2022

Wall Time:        8.50 seconds

                                                       Time (seconds)
Module                                       User      System        Wall        Calls

--------------------------------------------------------------------------------------

**************************************************************************************

Host: ds1

Timers On : Mon Feb 28 14:08:52 2022
Timers Off: Mon Feb 28 14:09:02 2022

Wall Time:       10.12 seconds

                                                       Time (seconds)
Module                                       User      System        Wall        Calls

--------------------------------------------------------------------------------------

**************************************************************************************

Host: ds1

Timers On : Mon Feb 28 14:09:02 2022
Timers Off: Mon Feb 28 14:09:08 2022

Wall Time:        5.19 seconds

                                                       Time (seconds)
Module                                       User      System        Wall        Calls

--------------------------------------------------------------------------------------

**************************************************************************************

Host: ds1

Timers On : Mon Feb 28 14:21:16 2022
Timers Off: Mon Feb 28 14:21:22 2022

Wall Time:        6.14 seconds

                                                       Time (seconds)
Module                                       User      System        Wall        Calls

--------------------------------------------------------------------------------------

**************************************************************************************

Host: ds1

Timers On : Mon Feb 28 14:21:22 2022
Timers Off: Mon Feb 28 14:21:30 2022

Wall Time:        7.84 seconds

                                                       Time (seconds)
Module                                       User      System        Wall        Calls

--------------------------------------------------------------------------------------

**************************************************************************************

Host: ds1

Timers On : Mon Feb 28 14:21:31 2022
Timers Off: Mon Feb 28 14:21:37 2022

Wall Time:        6.36 seconds

                                                       Time (seconds)
Module                                       User      System        Wall        Calls

--------------------------------------------------------------------------------------

**************************************************************************************

Host: ds1

Timers On : Mon Feb 28 14:21:38 2022
Timers Off: Mon Feb 28 14:21:44 2022

Wall Time:        5.70 seconds

                                                       Time (seconds)
Module                                       User      System        Wall        Calls

--------------------------------------------------------------------------------------

**************************************************************************************

Host: ds1

Timers On : Mon Feb 28 14:21:44 2022
Timers Off: Mon Feb 28 14:21:51 2022

Wall Time:        6.99 seconds

                                                       Time (seconds)
Module                                       User      System        Wall        Calls

--------------------------------------------------------------------------------------

**************************************************************************************

Host: ds1

Timers On : Mon Feb 28 14:21:52 2022
Timers Off: Mon Feb 28 14:21:58 2022

Wall Time:        6.07 seconds

                                                       Time (seconds)
Module                                       User      System        Wall        Calls

--------------------------------------------------------------------------------------

**************************************************************************************

Host: ds1

Timers On : Mon Feb 28 14:21:59 2022
Timers Off: Mon Feb 28 14:22:03 2022

Wall Time:        4.59 seconds

                                                       Time (seconds)
Module                                       User      System        Wall        Calls

--------------------------------------------------------------------------------------

**************************************************************************************

Host: ds1

Timers On : Mon Feb 28 14:22:04 2022
Timers Off: Mon Feb 28 14:22:09 2022

Wall Time:        4.94 seconds

                                                       Time (seconds)
Module                                       User      System        Wall        Calls

--------------------------------------------------------------------------------------

**************************************************************************************

Host: ds1

Timers On : Mon Feb 28 14:22:09 2022
Timers Off: Mon Feb 28 14:22:17 2022

Wall Time:        7.37 seconds

                                                       Time (seconds)
Module                                       User      System        Wall        Calls

--------------------------------------------------------------------------------------

**************************************************************************************

Host: ds1

Timers On : Mon Feb 28 14:22:17 2022
Timers Off: Mon Feb 28 14:22:26 2022

Wall Time:        8.14 seconds

                                                       Time (seconds)
Module                                       User      System        Wall        Calls

--------------------------------------------------------------------------------------

**************************************************************************************

Host: ds1

Timers On : Mon Feb 28 14:22:26 2022
Timers Off: Mon Feb 28 14:22:32 2022

Wall Time:        5.80 seconds

                                                       Time (seconds)
Module                                       User      System        Wall        Calls

--------------------------------------------------------------------------------------

**************************************************************************************

Host: ds1

Timers On : Mon Feb 28 14:22:33 2022
Timers Off: Mon Feb 28 14:22:39 2022

Wall Time:        6.70 seconds

                                                       Time (seconds)
Module                                       User      System        Wall        Calls

--------------------------------------------------------------------------------------

**************************************************************************************

Host: ds1

Timers On : Mon Feb 28 14:22:40 2022
Timers Off: Mon Feb 28 14:22:46 2022

Wall Time:        6.32 seconds

                                                       Time (seconds)
Module                                       User      System        Wall        Calls

--------------------------------------------------------------------------------------

**************************************************************************************

Host: ds1

Timers On : Mon Feb 28 14:22:47 2022
Timers Off: Mon Feb 28 14:22:54 2022

Wall Time:        7.32 seconds

                                                       Time (seconds)
Module                                       User      System        Wall        Calls

--------------------------------------------------------------------------------------

**************************************************************************************

Host: ds1

Timers On : Mon Feb 28 14:22:55 2022
Timers Off: Mon Feb 28 14:23:02 2022

Wall Time:        6.90 seconds

                                                       Time (seconds)
Module                                       User      System        Wall        Calls

--------------------------------------------------------------------------------------

**************************************************************************************

Host: ds1

Timers On : Mon Feb 28 14:23:02 2022
Timers Off: Mon Feb 28 14:23:03 2022

Wall Time:        0.61 seconds

                                                       Time (seconds)
Module                                       User      System        Wall        Calls

--------------------------------------------------------------------------------------

**************************************************************************************

Host: ds1

Timers On : Mon Feb 28 14:23:04 2022
Timers Off: Mon Feb 28 14:23:10 2022

Wall Time:        6.36 seconds

                                                       Time (seconds)
Module                                       User      System        Wall        Calls

--------------------------------------------------------------------------------------

**************************************************************************************

Host: ds1

Timers On : Mon Feb 28 14:23:11 2022
Timers Off: Mon Feb 28 14:23:17 2022

Wall Time:        6.45 seconds

                                                       Time (seconds)
Module                                       User      System        Wall        Calls

--------------------------------------------------------------------------------------

**************************************************************************************

Host: ds1

Timers On : Mon Feb 28 14:23:18 2022
Timers Off: Mon Feb 28 14:23:24 2022

Wall Time:        6.56 seconds

                                                       Time (seconds)
Module                                       User      System        Wall        Calls

--------------------------------------------------------------------------------------

**************************************************************************************

Host: ds1

Timers On : Mon Feb 28 14:23:25 2022
Timers Off: Mon Feb 28 14:23:30 2022

Wall Time:        5.02 seconds

                                                       Time (seconds)
Module                                       User      System        Wall        Calls

--------------------------------------------------------------------------------------

**************************************************************************************

Host: ds1

Timers On : Mon Feb 28 14:23:31 2022
Timers Off: Mon Feb 28 14:23:36 2022

Wall Time:        5.40 seconds

                                                       Time (seconds)
Module                                       User      System        Wall        Calls

--------------------------------------------------------------------------------------

**************************************************************************************

Host: ds1

Timers On : Mon Feb 28 14:23:37 2022
Timers Off: Mon Feb 28 14:23:45 2022

Wall Time:        8.34 seconds

                                                       Time (seconds)
Module                                       User      System        Wall        Calls

--------------------------------------------------------------------------------------

**************************************************************************************

Host: ds1

Timers On : Mon Feb 28 14:23:46 2022
Timers Off: Mon Feb 28 14:23:52 2022

Wall Time:        6.01 seconds

                                                       Time (seconds)
Module                                       User      System        Wall        Calls

--------------------------------------------------------------------------------------

**************************************************************************************

Host: ds1

Timers On : Mon Feb 28 14:23:52 2022
Timers Off: Mon Feb 28 14:23:59 2022

Wall Time:        6.90 seconds

                                                       Time (seconds)
Module                                       User      System        Wall        Calls

--------------------------------------------------------------------------------------

**************************************************************************************

Host: ds1

Timers On : Mon Feb 28 14:24:00 2022
Timers Off: Mon Feb 28 14:24:08 2022

Wall Time:        8.27 seconds

                                                       Time (seconds)
Module                                       User      System        Wall        Calls

--------------------------------------------------------------------------------------

**************************************************************************************

Host: ds1

Timers On : Mon Feb 28 14:24:09 2022
Timers Off: Mon Feb 28 14:24:19 2022

Wall Time:       10.20 seconds

                                                       Time (seconds)
Module                                       User      System        Wall        Calls

--------------------------------------------------------------------------------------

**************************************************************************************

Host: ds1

Timers On : Mon Feb 28 14:24:20 2022
Timers Off: Mon Feb 28 14:24:25 2022

Wall Time:        5.14 seconds

                                                       Time (seconds)
Module                                       User      System        Wall        Calls

--------------------------------------------------------------------------------------

**************************************************************************************

Host: ds1

Timers On : Tue Mar 22 13:19:50 2022
Timers Off: Tue Mar 22 13:19:51 2022

Wall Time:        0.73 seconds

                                                       Time (seconds)
Module                                       User      System        Wall        Calls

--------------------------------------------------------------------------------------

**************************************************************************************
