LAMMPS data file generated with LigParGen (israel.cabezadevaca@yale.edu)

       8 atoms
       7 bonds
      10 angles
       8 dihedrals
       1 impropers

       8 atom types
       7 bond types
      10 angle types
       8 dihedral types
       1 improper types

   -1.319000    48.681000 xlo xhi
   -1.263000    48.737000 ylo yhi
   -0.966000    49.034000 zlo zhi

Masses

       1     12.011
       2     15.999
       3     15.999
       4     12.011
       5      1.008
       6      1.008
       7      1.008
       8      1.008

Pair Coeffs

       1      0.070  3.5500000
       2      0.210  2.9600000
       3      0.170  3.1200000
       4      0.066  3.5000000
       5      0.000  0.0000000
       6      0.030  2.5000000
       7      0.030  2.5000000
       8      0.030  2.5000000

Bond Coeffs

       1   570.0000     1.2290
       2   450.0000     1.3640
       3   317.0000     1.5220
       4   553.0000     0.9450
       5   340.0000     1.0900
       6   340.0000     1.0900
       7   340.0000     1.0900

Angle Coeffs

       1     80.000    121.000
       2     80.000    120.400
       3     35.000    113.000
       4     35.000    109.500
       5     35.000    109.500
       6     35.000    109.500
       7     70.000    108.000
       8     33.000    107.800
       9     33.000    107.800
      10     33.000    107.800

Dihedral Coeffs

       1      0.000      5.500      0.000      0.000
       2      0.000      0.000      0.000      0.000
       3      0.000      0.000      0.000      0.000
       4      0.000      0.000      0.000      0.000
       5      0.000      0.000      0.000      0.000
       6      0.000      0.000      0.000      0.000
       7      0.000      0.000      0.000      0.000
       8      1.500      5.500      0.000      0.000

Improper Coeffs

       1     10.500      -1       2

Atoms

     1      1      1   0.470257  0.55500 -0.19500  0.01400
     2      1      2  -0.442543  1.15300 -1.26300  0.24200
     3      1      3  -0.642216  1.23500  0.98000 -0.18700
     4      1      4  -0.268052 -0.93800 -0.17300 -0.04400
     5      1      5   0.483184  1.82200  1.18600 -0.96600
     6      1      6   0.133124 -1.31900  0.86500 -0.05400
     7      1      7   0.133124 -1.27900 -0.66700  0.90300
     8      1      8   0.133122 -1.22800 -0.73400 -0.94400

Bonds

     1      1      2      1
     2      2      3      1
     3      3      4      1
     4      4      5      3
     5      5      6      4
     6      6      7      4
     7      7      8      4

Angles

     1      1      3      1      2
     2      2      4      1      2
     3      3      5      3      1
     4      4      6      4      1
     5      5      7      4      1
     6      6      8      4      1
     7      7      4      1      3
     8      8      7      4      6
     9      9      8      4      6
    10     10      8      4      7

Dihedrals

     1      1      5      3      1      2
     2      2      6      4      1      2
     3      3      7      4      1      2
     4      4      8      4      1      2
     5      5      6      4      1      3
     6      6      7      4      1      3
     7      7      8      4      1      3
     8      8      5      3      1      4

Impropers

     1      1      2      1      3      4


