LAMMPS data file generated with LigParGen (israel.cabezadevaca@yale.edu)

       3 atoms
       2 bonds
       1 angles
       0 dihedrals
       3 atom types
       2 bond types
       1 angle types
       0 dihedral types

   -0.825000    49.175000 xlo xhi
   -0.182000    49.818000 ylo yhi
    0.000000    50.000000 zlo zhi

Masses

       1     15.999
       2      1.008
       3      1.008

Pair Coeffs

       1      0.155  3.1536500
       2      0.000  0.0000000
       3      0.000  0.0000000

Bond Coeffs

       1   553.0000     0.9450
       2   553.0000     0.9450

Angle Coeffs

       1     62.500     82.120

Dihedral Coeffs


Atoms

     1      1      1  -0.838675 -0.00100  0.36300  0.00000
     2      1      2   0.419338 -0.82500 -0.18200  0.00000
     3      1      3   0.419337  0.82600 -0.18100  0.00000

Bonds

     1      1      2      1
     2      2      3      1

Angles

     1      1      3      1      2

Dihedrals



