LAMMPS data file generated with LigParGen (israel.cabezadevaca@yale.edu)

       9 atoms
       9 bonds
      13 angles
      16 dihedrals
       4 impropers

       9 atom types
       9 bond types
      13 angle types
      16 dihedral types
       4 improper types

   -2.056000    47.944000 xlo xhi
   -1.352000    48.648000 ylo yhi
   -0.046000    49.954000 zlo zhi

Masses

       1     14.007
       2     14.007
       3     12.011
       4     12.011
       5     12.011
       6      1.008
       7      1.008
       8      1.008
       9      1.008

Pair Coeffs

       1      0.170  3.2500000
       2      0.170  3.2500000
       3      0.070  3.5500000
       4      0.070  3.5500000
       5      0.070  3.5500000
       6      0.000  0.0000000
       7      0.030  2.4200000
       8      0.030  2.4200000
       9      0.030  2.4200000

Bond Coeffs

       1   400.0000     1.3490
       2   427.0000     1.3810
       3   546.0000     1.3670
       4   469.0000     1.4240
       5   434.0000     1.0100
       6   367.0000     1.0800
       7   367.0000     1.0800
       8   367.0000     1.0800
       9   410.0000     1.3200

Angle Coeffs

       1     56.000    113.100
       2     70.000    107.700
       3     70.000    103.800
       4     56.000    119.300
       5     35.000    121.600
       6     35.000    125.700
       7     35.000    129.200
       8     70.000    104.100
       9     35.000    124.000
      10     35.000    132.100
      11     35.000    128.500
      12     35.000    118.900
      13     70.000    111.900

Dihedral Coeffs

       1      0.000      5.000      0.000      0.000
       2      0.000      7.250      0.000      0.000
       3      0.000     10.000      0.000      0.000
       4      0.000      5.000      0.000      0.000
       5      0.000      7.250      0.000      0.000
       6      0.000      7.250      0.000      0.000
       7      0.000      7.250      0.000      0.000
       8      0.000      7.250      0.000      0.000
       9      0.000      7.250      0.000      0.000
      10      0.000      5.000      0.000      0.000
      11      0.000      7.250      0.000      0.000
      12      0.000      5.000      0.000      0.000
      13      0.000      7.250      0.000      0.000
      14      0.000      7.250      0.000      0.000
      15      0.000      7.250      0.000      0.000
      16      0.000      2.170      0.000      0.000

Improper Coeffs

       1      2.500      -1       2
       2      2.500      -1       2
       3      2.500      -1       2
       4      2.500      -1       2

Atoms

     1      1      1  -0.231532  0.04400 -1.35200  0.01900
     2      1      2  -0.311981 -1.06900 -0.65400  0.02900
     3      1      3  -0.127460 -0.72900  0.64200  0.00300
     4      1      4  -0.295959  0.66700  0.71900 -0.02200
     5      1      5  -0.080360  1.11900 -0.58000 -0.01100
     6      1      6   0.459510 -2.05600 -0.98300  0.05100
     7      1      7   0.194764 -1.38900  1.50100  0.00300
     8      1      8   0.179633  1.27600  1.61000 -0.04600
     9      1      9   0.213385  2.13800 -0.90300 -0.02500

Bonds

     1      1      2      1
     2      2      3      2
     3      3      4      3
     4      4      5      4
     5      5      6      2
     6      6      7      3
     7      7      8      4
     8      8      9      5
     9      9      5      1

Angles

     1      1      3      2      1
     2      2      4      3      2
     3      3      5      4      3
     4      4      6      2      1
     5      5      7      3      2
     6      6      8      4      3
     7      7      9      5      4
     8      8      5      1      2
     9      9      6      2      3
    10     10      7      3      4
    11     11      8      4      5
    12     12      1      5      9
    13     13      4      5      1

Dihedrals

     1      1      4      3      2      1
     2      2      5      4      3      2
     3      3      6      2      1      5
     4      4      7      3      2      1
     5      5      8      4      3      2
     6      6      9      5      4      3
     7      7      4      5      1      2
     8      8      9      5      1      2
     9      9      5      1      2      3
    10     10      6      2      3      4
    11     11      7      3      4      5
    12     12      7      3      2      6
    13     13      8      4      3      7
    14     14      1      5      4      8
    15     15      9      5      4      8
    16     16      3      4      5      1

Impropers

     1      1      1      2      3      6
     2      2      2      3      4      7
     3      3      3      4      5      8
     4      4      4      5      1      9


