LAMMPS data file generated with LigParGen (israel.cabezadevaca@yale.edu)

      10 atoms
      10 bonds
      14 angles
      16 dihedrals
       4 impropers

      10 atom types
      10 bond types
      14 angle types
      16 dihedral types
       4 improper types

   -2.152000    47.848000 xlo xhi
   -1.396000    48.604000 ylo yhi
   -0.784000    49.216000 zlo zhi

Masses

       1     14.007
       2     12.011
       3     12.011
       4     12.011
       5     14.007
       6     12.011
       7      1.008
       8      1.008
       9      1.008
      10      1.008

Pair Coeffs

       1      0.170  3.2500000
       2      0.070  3.5500000
       3      0.070  3.5500000
       4      0.070  3.5500000
       5      0.170  3.2500000
       6      0.070  3.5500000
       7      0.030  2.4200000
       8      0.030  2.4200000
       9      0.030  2.4200000
      10      0.030  2.4200000

Bond Coeffs

       1   483.0000     1.3390
       2   483.0000     1.3390
       3   469.0000     1.4000
       4   483.0000     1.3390
       5   483.0000     1.3390
       6   367.0000     1.0800
       7   367.0000     1.0800
       8   367.0000     1.0800
       9   367.0000     1.0800
      10   469.0000     1.4000

Angle Coeffs

       1     70.000    117.000
       2     70.000    124.000
       3     70.000    124.000
       4     70.000    117.000
       5     35.000    116.000
       6     35.000    116.000
       7     35.000    116.000
       8     35.000    120.000
       9     35.000    120.000
      10     35.000    116.000
      11     70.000    124.000
      12     35.000    120.000
      13     35.000    120.000
      14     70.000    124.000

Dihedral Coeffs

       1      0.000      7.250      0.000      0.000
       2      0.000      7.250      0.000      0.000
       3      0.000      7.250      0.000      0.000
       4      0.000      7.250      0.000      0.000
       5      0.000      7.250      0.000      0.000
       6      0.000      7.250      0.000      0.000
       7      0.000      7.250      0.000      0.000
       8      0.000      7.250      0.000      0.000
       9      0.000      7.250      0.000      0.000
      10      0.000      7.250      0.000      0.000
      11      0.000      7.250      0.000      0.000
      12      0.000      7.250      0.000      0.000
      13      0.000      7.250      0.000      0.000
      14      0.000      7.250      0.000      0.000
      15      0.000      7.250      0.000      0.000
      16      0.000      7.250      0.000      0.000

Improper Coeffs

       1      2.500      -1       2
       2      2.500      -1       2
       3      2.500      -1       2
       4      2.500      -1       2

Atoms

     1      1      1  -0.485953 -0.06600  1.24300  0.46400
     2      1      2   0.053095 -1.18900  0.50800  0.43800
     3      1      3   0.053647  1.11700  0.77800  0.04300
     4      1      4   0.051780  1.18700 -0.50800 -0.43800
     5      1      5  -0.482515  0.06700 -1.24800 -0.46600
     6      1      6   0.053666 -1.12100 -0.78400 -0.04400
     7      1      7   0.187829 -2.01400 -1.39600 -0.07400
     8      1      8   0.190415 -2.15200  0.90900  0.78900
     9      1      9   0.189670  2.02600  1.39700  0.07200
    10      1     10   0.188366  2.14600 -0.89900 -0.78400

Bonds

     1      1      2      1
     2      2      3      1
     3      3      4      3
     4      4      5      4
     5      5      6      5
     6      6      7      6
     7      7      8      2
     8      8      9      3
     9      9     10      4
    10     10      6      2

Angles

     1      1      3      1      2
     2      2      4      3      1
     3      3      5      4      3
     4      4      6      5      4
     5      5      7      6      5
     6      6      8      2      1
     7      7      9      3      1
     8      8     10      4      3
     9      9      9      3      4
    10     10     10      4      5
    11     11      1      2      6
    12     12      8      2      6
    13     13      2      6      7
    14     14      5      6      2

Dihedrals

     1      1      4      3      1      2
     2      2      5      4      3      1
     3      3      6      5      4      3
     4      4      7      6      5      4
     5      5      8      2      1      3
     6      6      9      3      1      2
     7      7     10      4      3      1
     8      8      6      2      1      3
     9      9      9      3      4      5
    10     10     10      4      5      6
    11     11      1      2      6      7
    12     12      8      2      6      7
    13     13      5      6      2      8
    14     14     10      4      3      9
    15     15      4      5      6      2
    16     16      1      2      6      5

Impropers

     1      1      1      2      6      8
     2      2      1      3      4      9
     3      3      3      4      5     10
     4      4      5      6      2      7


