LAMMPS data file generated with LigParGen (israel.cabezadevaca@yale.edu)

       8 atoms
       7 bonds
       8 angles
       8 dihedrals
       2 impropers

       8 atom types
       7 bond types
       8 angle types
       8 dihedral types
       2 improper types

   -2.407000    47.593000 xlo xhi
   -1.312000    48.688000 ylo yhi
   -1.038000    48.962000 zlo zhi

Masses

       1     12.011
       2     12.011
       3     15.999
       4     15.999
       5     15.999
       6     15.999
       7      1.008
       8      1.008

Pair Coeffs

       1      0.070  3.5500000
       2      0.070  3.5500000
       3      0.210  2.9600000
       4      0.210  2.9600000
       5      0.170  3.1200000
       6      0.170  3.1200000
       7      0.000  0.0000000
       8      0.000  0.0000000

Bond Coeffs

       1   350.0000     1.5100
       2   570.0000     1.2290
       3   570.0000     1.2290
       4   450.0000     1.3640
       5   450.0000     1.3640
       6   553.0000     0.9450
       7   553.0000     0.9450

Angle Coeffs

       1     80.000    121.400
       2     80.000    121.400
       3     70.130    117.450
       4     70.130    117.450
       5     35.000    113.000
       6     35.000    113.000
       7     80.000    121.000
       8     80.000    121.000

Dihedral Coeffs

       1      1.600      3.200      0.000      0.000
       2      1.600      3.200      0.000      0.000
       3      1.600      3.200      0.000      0.000
       4      3.000      5.500      0.000      0.000
       5      3.000      5.500      0.000      0.000
       6      0.000      5.500      0.000      0.000
       7      0.000      5.500      0.000      0.000
       8      1.600      3.200      0.000      0.000

Improper Coeffs

       1     10.500      -1       2
       2     10.500      -1       2

Atoms

     1      1      1   0.454497 -0.59100  0.48200 -0.01000
     2      1      2   0.449768  0.55500 -0.39800 -0.18100
     3      1      3  -0.383311  0.45500 -1.31200 -1.03800
     4      1      4  -0.348541 -0.54200  1.41100  0.83500
     5      1      5  -0.586895 -1.75400  0.34400 -0.74700
     6      1      6  -0.591291  1.71500 -0.26400  0.55100
     7      1      7   0.504414  2.56900  0.15900  0.19600
     8      1      8   0.501359 -2.40700 -0.42300 -0.64200

Bonds

     1      1      2      1
     2      2      3      2
     3      3      4      1
     4      4      5      1
     5      5      6      2
     6      6      7      6
     7      7      8      5

Angles

     1      1      3      2      1
     2      2      4      1      2
     3      3      5      1      2
     4      4      6      2      1
     5      5      7      6      2
     6      6      8      5      1
     7      7      6      2      3
     8      8      5      1      4

Dihedrals

     1      1      4      1      2      3
     2      2      5      1      2      3
     3      3      6      2      1      4
     4      4      7      6      2      1
     5      5      8      5      1      2
     6      6      7      6      2      3
     7      7      8      5      1      4
     8      8      6      2      1      5

Impropers

     1      1      2      1      4      5
     2      2      1      2      3      6


