LAMMPS data file generated with LigParGen (israel.cabezadevaca@yale.edu)

       8 atoms
       7 bonds
       9 angles
       8 dihedrals
       3 impropers

       8 atom types
       7 bond types
       9 angle types
       8 dihedral types
       3 improper types

   -2.027000    47.973000 xlo xhi
   -0.957000    49.043000 ylo yhi
   -1.102000    48.898000 zlo zhi

Masses

       1     12.011
       2     15.999
       3     14.007
       4     14.007
       5      1.008
       6      1.008
       7      1.008
       8      1.008

Pair Coeffs

       1      0.070  3.5500000
       2      0.210  2.9600000
       3      0.170  3.2500000
       4      0.170  3.2500000
       5      0.000  0.0000000
       6      0.000  0.0000000
       7      0.000  0.0000000
       8      0.000  0.0000000

Bond Coeffs

       1   570.0000     1.2290
       2   490.0000     1.3350
       3   490.0000     1.3350
       4   434.0000     1.0100
       5   434.0000     1.0100
       6   434.0000     1.0100
       7   434.0000     1.0100

Angle Coeffs

       1     80.000    122.900
       2     80.000    122.900
       3     35.000    119.800
       4     35.000    119.800
       5     35.000    119.800
       6     35.000    119.800
       7     70.000    114.200
       8     35.000    120.000
       9     35.000    120.000

Dihedral Coeffs

       1      0.000      4.900      0.000      0.000
       2      0.000      4.900      0.000      0.000
       3      0.000      4.900      0.000      0.000
       4      0.000      4.900      0.000      0.000
       5      0.000      4.900      0.000      0.000
       6      0.000      4.900      0.000      0.000
       7      0.000      4.900      0.000      0.000
       8      0.000      4.900      0.000      0.000

Improper Coeffs

       1     10.500      -1       2
       2      2.500      -1       2
       3      2.500      -1       2

Atoms

     1      1      1   1.023649  0.06500  0.50200 -0.07200
     2      1      2  -0.402640  0.19200  1.74600 -0.23100
     3      1      3  -1.459519 -1.18900 -0.03600  0.28700
     4      1      4  -1.467077  1.16700 -0.37000 -0.24700
     5      1      5   0.571431 -1.30900 -0.53300  1.19300
     6      1      6   0.571431 -2.02700  0.03400 -0.31900
     7      1      7   0.581362  1.89700 -0.38700  0.49000
     8      1      8   0.581363  1.20500 -0.95700 -1.10200

Bonds

     1      1      2      1
     2      2      3      1
     3      3      4      1
     4      4      5      3
     5      5      6      3
     6      6      7      4
     7      7      8      4

Angles

     1      1      3      1      2
     2      2      4      1      2
     3      3      5      3      1
     4      4      6      3      1
     5      5      7      4      1
     6      6      8      4      1
     7      7      4      1      3
     8      8      6      3      5
     9      9      8      4      7

Dihedrals

     1      1      5      3      1      2
     2      2      6      3      1      2
     3      3      7      4      1      2
     4      4      8      4      1      2
     5      5      7      4      1      3
     6      6      8      4      1      3
     7      7      5      3      1      4
     8      8      6      3      1      4

Impropers

     1      1      2      1      3      4
     2      2      1      3      5      6
     3      3      1      4      7      8


