LAMMPS data file generated with LigParGen (israel.cabezadevaca@yale.edu)

      22 atoms
      24 bonds
      48 angles
      72 dihedrals
       4 impropers

      22 atom types
      24 bond types
      48 angle types
      72 dihedral types
       4 improper types

   -2.296000    47.704000 xlo xhi
   -2.569000    47.431000 ylo yhi
   -2.499000    47.501000 zlo zhi

Masses

       1     14.007
       2     12.011
       3     12.011
       4     12.011
       5     14.007
       6     12.011
       7     12.011
       8     14.007
       9     12.011
      10     14.007
      11      1.008
      12      1.008
      13      1.008
      14      1.008
      15      1.008
      16      1.008
      17      1.008
      18      1.008
      19      1.008
      20      1.008
      21      1.008
      22      1.008

Pair Coeffs

       1      0.170  3.3000000
       2      0.066  3.5000000
       3      0.066  3.5000000
       4      0.066  3.5000000
       5      0.170  3.3000000
       6      0.066  3.5000000
       7      0.066  3.5000000
       8      0.170  3.3000000
       9      0.066  3.5000000
      10      0.170  3.3000000
      11      0.030  2.5000000
      12      0.030  2.5000000
      13      0.030  2.5000000
      14      0.030  2.5000000
      15      0.030  2.5000000
      16      0.030  2.5000000
      17      0.030  2.5000000
      18      0.030  2.5000000
      19      0.030  2.5000000
      20      0.030  2.5000000
      21      0.030  2.5000000
      22      0.030  2.5000000

Bond Coeffs

       1   382.0000     1.4480
       2   382.0000     1.4480
       3   382.0000     1.4480
       4   382.0000     1.4480
       5   382.0000     1.4480
       6   382.0000     1.4480
       7   382.0000     1.4480
       8   382.0000     1.4480
       9   382.0000     1.4480
      10   340.0000     1.0900
      11   340.0000     1.0900
      12   340.0000     1.0900
      13   340.0000     1.0900
      14   340.0000     1.0900
      15   340.0000     1.0900
      16   340.0000     1.0900
      17   340.0000     1.0900
      18   340.0000     1.0900
      19   340.0000     1.0900
      20   340.0000     1.0900
      21   340.0000     1.0900
      22   382.0000     1.4480
      23   382.0000     1.4480
      24   382.0000     1.4480

Angle Coeffs

       1     51.800    107.200
       2     51.800    107.200
       3     56.200    109.470
       4     51.800    107.200
       5     51.800    107.200
       6     56.200    109.470
       7     51.800    107.200
       8     56.200    109.470
       9     35.000    109.500
      10     35.000    109.500
      11     35.000    109.500
      12     35.000    109.500
      13     35.000    109.500
      14     35.000    109.500
      15     35.000    109.500
      16     35.000    109.500
      17     35.000    109.500
      18     35.000    109.500
      19     35.000    109.500
      20     35.000    109.500
      21     51.800    107.200
      22     35.000    109.500
      23     35.000    109.500
      24     51.800    107.200
      25     35.000    109.500
      26     35.000    109.500
      27     56.200    109.470
      28     35.000    109.500
      29     35.000    109.500
      30     51.800    107.200
      31     35.000    109.500
      32     35.000    109.500
      33     56.200    109.470
      34     35.000    109.500
      35     35.000    109.500
      36     56.200    109.470
      37     35.000    109.500
      38     35.000    109.500
      39     33.000    107.800
      40     33.000    107.800
      41     33.000    107.800
      42     33.000    107.800
      43     33.000    107.800
      44     33.000    107.800
      45     51.800    107.200
      46     51.800    107.200
      47     51.800    107.200
      48     51.800    107.200

Dihedral Coeffs

       1      0.416     -0.128      0.695      0.000
       2      0.416     -0.128      0.695      0.000
       3      0.416     -0.128      0.695      0.000
       4      0.416     -0.128      0.695      0.000
       5      0.416     -0.128      0.695      0.000
       6      0.416     -0.128      0.695      0.000
       7      0.000      0.000      0.560      0.000
       8      0.000      0.000      0.560      0.000
       9      0.000      0.000      0.560      0.000
      10      0.000      0.000      0.560      0.000
      11      0.000      0.000      0.560      0.000
      12      0.000      0.000      0.560      0.000
      13      0.000      0.000      0.560      0.000
      14      0.000      0.000      0.560      0.000
      15      0.000      0.000      0.560      0.000
      16      0.000      0.000      0.560      0.000
      17      0.000      0.000      0.560      0.000
      18      0.000      0.000      0.560      0.000
      19      0.416     -0.128      0.695      0.000
      20      0.416     -0.128      0.695      0.000
      21      0.416     -0.128      0.695      0.000
      22      0.000      0.000      0.560      0.000
      23      0.000      0.000      0.560      0.000
      24      0.416     -0.128      0.695      0.000
      25      0.000      0.000      0.560      0.000
      26      0.000      0.000      0.560      0.000
      27      0.416     -0.128      0.695      0.000
      28      0.000      0.000      0.560      0.000
      29      0.000      0.000      0.560      0.000
      30      0.000      0.000      0.560      0.000
      31      0.000      0.000      0.560      0.000
      32      0.416     -0.128      0.695      0.000
      33      0.000      0.000      0.560      0.000
      34      0.000      0.000      0.560      0.000
      35      0.000      0.000      0.560      0.000
      36      0.000      0.000      0.560      0.000
      37      0.416     -0.128      0.695      0.000
      38      0.000      0.000      0.560      0.000
      39      0.000      0.000      0.560      0.000
      40      0.000      0.000      0.560      0.000
      41      0.000      0.000      0.560      0.000
      42      0.416     -0.128      0.695      0.000
      43      0.000      0.000      0.560      0.000
      44      0.000      0.000      0.560      0.000
      45      0.416     -0.128      0.695      0.000
      46      0.416     -0.128      0.695      0.000
      47      0.000      0.000      0.560      0.000
      48      0.000      0.000      0.560      0.000
      49      0.000      0.000      0.560      0.000
      50      0.000      0.000      0.560      0.000
      51      0.000      0.000      0.560      0.000
      52      0.000      0.000      0.560      0.000
      53      0.000      0.000      0.560      0.000
      54      0.000      0.000      0.560      0.000
      55      0.000      0.000      0.560      0.000
      56      0.000      0.000      0.560      0.000
      57      0.000      0.000      0.560      0.000
      58      0.000      0.000      0.560      0.000
      59      0.000      0.000      0.560      0.000
      60      0.000      0.000      0.560      0.000
      61      0.000      0.000      0.560      0.000
      62      0.000      0.000      0.560      0.000
      63      0.000      0.000      0.560      0.000
      64      0.000      0.000      0.560      0.000
      65      0.416     -0.128      0.695      0.000
      66      0.416     -0.128      0.695      0.000
      67      0.416     -0.128      0.695      0.000
      68      0.416     -0.128      0.695      0.000
      69      0.416     -0.128      0.695      0.000
      70      0.416     -0.128      0.695      0.000
      71      0.416     -0.128      0.695      0.000
      72      0.416     -0.128      0.695      0.000

Improper Coeffs

       1      0.000      -1       2
       2      0.000      -1       2
       3      0.000      -1       2
       4      0.000      -1       2

Atoms

     1      1      1  -0.732964  0.71000 -0.64000  1.03000
     2      1      2   0.209381 -0.18500 -1.60600  0.42600
     3      1      3   0.197225 -0.13200  0.43500  1.54700
     4      1      4   0.215342  1.66000 -0.09400  0.09900
     5      1      5  -0.711370  0.94900  0.56100 -1.00800
     6      1      6   0.201348  0.19300  1.63600 -0.41500
     7      1      7   0.212644  0.12900 -0.44700 -1.62300
     8      1      8  -0.691607 -0.84000  1.10700  0.44600
     9      1      9   0.195665 -1.64900  0.10000 -0.18800
    10      1     10  -0.706891 -0.83100 -0.99700 -0.71700
    11      1     11   0.135666 -2.24700 -0.38300  0.64200
    12      1     12   0.135666 -2.29600  0.49600 -0.98000
    13      1     13   0.133465  0.28600 -2.56900  0.20600
    14      1     14   0.133465 -0.96500 -1.82100  1.21500
    15      1     15   0.136439 -0.93600 -0.06200  2.14000
    16      1     16   0.136439  0.43700  1.18100  2.12200
    17      1     17   0.133754  2.35300 -0.84300 -0.27900
    18      1     18   0.133754  2.21100  0.71000  0.62000
    19      1     19   0.132162 -0.16100  2.38700 -1.12400
    20      1     20   0.132162  0.91400  2.17300  0.27200
    21      1     21   0.134129 -0.41200 -0.05000 -2.49900
    22      1     22   0.134126  0.81100 -1.27400 -1.93100

Bonds

     1      1      2      1
     2      2      3      1
     3      3      4      1
     4      4      5      4
     5      5      6      5
     6      6      7      5
     7      7      8      6
     8      8      9      8
     9      9     10      9
    10     10     11      9
    11     11     12      9
    12     12     13      2
    13     13     14      2
    14     14     15      3
    15     15     16      3
    16     16     17      4
    17     17     18      4
    18     18     19      6
    19     19     20      6
    20     20     21      7
    21     21     22      7
    22     22      8      3
    23     23     10      7
    24     24     10      2

Angles

     1      1      3      1      2
     2      2      4      1      2
     3      3      5      4      1
     4      4      6      5      4
     5      5      7      5      4
     6      6      8      6      5
     7      7      9      8      6
     8      8     10      9      8
     9      9     11      9      8
    10     10     12      9      8
    11     11     13      2      1
    12     12     14      2      1
    13     13     15      3      1
    14     14     16      3      1
    15     15     17      4      1
    16     16     18      4      1
    17     17     19      6      5
    18     18     20      6      5
    19     19     21      7      5
    20     20     22      7      5
    21     21      4      1      3
    22     22     17      4      5
    23     23     18      4      5
    24     24      7      5      6
    25     25     19      6      8
    26     26     20      6      8
    27     27      1      3      8
    28     28     15      3      8
    29     29     16      3      8
    30     30      3      8      9
    31     31     11      9     10
    32     32     12      9     10
    33     33      5      7     10
    34     34     21      7     10
    35     35     22      7     10
    36     36      1      2     10
    37     37     13      2     10
    38     38     14      2     10
    39     39     12      9     11
    40     40     14      2     13
    41     41     16      3     15
    42     42     18      4     17
    43     43     20      6     19
    44     44     22      7     21
    45     45      6      8      3
    46     46      9     10      7
    47     47      9     10      2
    48     48      7     10      2

Dihedrals

     1      1      5      4      1      2
     2      2      6      5      4      1
     3      3      7      5      4      1
     4      4      8      6      5      4
     5      5      9      8      6      5
     6      6     10      9      8      6
     7      7     11      9      8      6
     8      8     12      9      8      6
     9      9     13      2      1      3
    10     10     14      2      1      3
    11     11     15      3      1      2
    12     12     16      3      1      2
    13     13     17      4      1      2
    14     14     18      4      1      2
    15     15     19      6      5      4
    16     16     20      6      5      4
    17     17     21      7      5      4
    18     18     22      7      5      4
    19     19      8      3      1      2
    20     20     10      2      1      3
    21     21      5      4      1      3
    22     22     17      4      1      3
    23     23     18      4      1      3
    24     24     10      2      1      4
    25     25     13      2      1      4
    26     26     14      2      1      4
    27     27      8      3      1      4
    28     28     15      3      1      4
    29     29     16      3      1      4
    30     30     17      4      5      6
    31     31     18      4      5      6
    32     32     10      7      5      6
    33     33     21      7      5      6
    34     34     22      7      5      6
    35     35     17      4      5      7
    36     36     18      4      5      7
    37     37      8      6      5      7
    38     38     19      6      5      7
    39     39     20      6      5      7
    40     40     19      6      8      9
    41     41     20      6      8      9
    42     42      1      3      8      9
    43     43     15      3      8      9
    44     44     16      3      8      9
    45     45      3      8      9     10
    46     46      4      5      7     10
    47     47      3      8      9     11
    48     48      7     10      9     11
    49     49      2     10      9     11
    50     50      3      8      9     12
    51     51      7     10      9     12
    52     52      2     10      9     12
    53     53      9     10      2     13
    54     54      7     10      2     13
    55     55      9     10      2     14
    56     56      7     10      2     14
    57     57      6      8      3     15
    58     58      6      8      3     16
    59     59      3      8      6     19
    60     60      3      8      6     20
    61     61      9     10      7     21
    62     62      2     10      7     21
    63     63      9     10      7     22
    64     64      2     10      7     22
    65     65      5      6      8      3
    66     66      1      3      8      6
    67     67      8      9     10      7
    68     68      8      9     10      2
    69     69      5      7     10      9
    70     70      5      7     10      2
    71     71      1      2     10      9
    72     72      1      2     10      7

Impropers

     1      1      2      1      3      4
     2      2      4      5      6      7
     3      3      6      8      3      9
     4      4      9     10      7      2


