LAMMPS data file generated with LigParGen (israel.cabezadevaca@yale.edu)

       6 atoms
       5 bonds
       6 angles
       4 dihedrals
       2 impropers

       6 atom types
       5 bond types
       6 angle types
       4 dihedral types
       2 improper types

   -1.232000    48.768000 xlo xhi
   -0.773000    49.227000 ylo yhi
   -0.687000    49.313000 zlo zhi

Masses

       1     12.011
       2     15.999
       3     14.007
       4      1.008
       5      1.008
       6      1.008

Pair Coeffs

       1      0.070  3.5500000
       2      0.210  2.9600000
       3      0.170  3.2500000
       4      0.030  2.5000000
       5      0.000  0.0000000
       6      0.000  0.0000000

Bond Coeffs

       1   570.0000     1.2290
       2   490.0000     1.3350
       3   340.0000     1.0900
       4   434.0000     1.0100
       5   434.0000     1.0100

Angle Coeffs

       1     80.000    122.900
       2     35.000    123.000
       3     35.000    119.800
       4     35.000    119.800
       5     40.000    114.000
       6     35.000    120.000

Dihedral Coeffs

       1      0.000      4.900      0.000      0.000
       2      0.000      4.900      0.000      0.000
       3      0.000      4.900      0.000      0.000
       4      0.000      4.900      0.000      0.000

Improper Coeffs

       1     10.500      -1       2
       2      2.500      -1       2

Atoms

     1      1      1   0.623765  0.65400  0.12100 -0.05700
     2      1      2  -0.413707  1.53200 -0.77300 -0.09300
     3      1      3  -1.504567 -0.72700 -0.10700  0.06400
     4      1      4   0.140505  1.00000  1.14300 -0.12400
     5      1      5   0.577002 -1.23200  0.21800  0.89800
     6      1      6   0.577002 -1.22700 -0.60100 -0.68700

Bonds

     1      1      2      1
     2      2      3      1
     3      3      4      1
     4      4      5      3
     5      5      6      3

Angles

     1      1      3      1      2
     2      2      4      1      2
     3      3      5      3      1
     4      4      6      3      1
     5      5      4      1      3
     6      6      6      3      5

Dihedrals

     1      1      5      3      1      2
     2      2      6      3      1      2
     3      3      5      3      1      4
     4      4      6      3      1      4

Impropers

     1      1      2      1      3      4
     2      2      1      3      5      6


