LAMMPS data file generated with LigParGen (israel.cabezadevaca@yale.edu)

      13 atoms
      12 bonds
      19 angles
      18 dihedrals
       2 impropers

      13 atom types
      12 bond types
      19 angle types
      18 dihedral types
       2 improper types

   -2.986000    47.014000 xlo xhi
   -1.239000    48.761000 ylo yhi
   -0.990000    49.010000 zlo zhi

Masses

       1     15.999
       2     12.011
       3     12.011
       4     12.011
       5     14.007
       6     15.999
       7      1.008
       8      1.008
       9      1.008
      10      1.008
      11      1.008
      12      1.008
      13      1.008

Pair Coeffs

       1      0.140  2.9000000
       2      0.070  3.5500000
       3      0.066  3.5000000
       4      0.066  3.5000000
       5      0.170  3.2500000
       6      0.210  2.9600000
       7      0.030  2.5000000
       8      0.030  2.5000000
       9      0.030  2.5000000
      10      0.030  2.5000000
      11      0.030  2.5000000
      12      0.000  0.0000000
      13      0.000  0.0000000

Bond Coeffs

       1   214.0000     1.3270
       2   320.0000     1.4100
       3   268.0000     1.5290
       4   490.0000     1.3350
       5   570.0000     1.2290
       6   340.0000     1.0900
       7   340.0000     1.0900
       8   340.0000     1.0900
       9   340.0000     1.0900
      10   340.0000     1.0900
      11   434.0000     1.0100
      12   434.0000     1.0100

Angle Coeffs

       1     83.000    116.900
       2     50.000    109.500
       3     81.000    111.400
       4     83.000    123.400
       5     35.000    109.500
       6     35.000    109.500
       7     37.500    110.700
       8     37.500    110.700
       9     37.500    110.700
      10     35.000    119.800
      11     35.000    119.800
      12     37.500    110.700
      13     37.500    110.700
      14     80.000    122.900
      15     33.000    107.800
      16     33.000    107.800
      17     33.000    107.800
      18     33.000    107.800
      19     35.000    120.000

Dihedral Coeffs

       1     -1.220     -0.126      0.422      0.000
       2     -2.000      5.000      0.000      0.000
       3      0.000      5.124      0.000      0.000
       4      0.000      0.000      0.198      0.000
       5      0.000      0.000      0.198      0.000
       6      0.000      0.000      0.468      0.000
       7      0.000      0.000      0.468      0.000
       8      0.000      0.000      0.468      0.000
       9      0.000      4.900      0.000      0.000
      10      0.000      4.900      0.000      0.000
      11      0.000      4.900      0.000      0.000
      12      0.000      4.900      0.000      0.000
      13      0.000      0.000      0.300      0.000
      14      0.000      0.000      0.300      0.000
      15      0.000      0.000      0.300      0.000
      16      0.000      0.000      0.300      0.000
      17      0.000      0.000      0.300      0.000
      18      0.000      0.000      0.300      0.000

Improper Coeffs

       1     10.500      -1       2
       2      2.500      -1       2

Atoms

     1      1      1  -0.383359  0.22700 -0.22400  0.00500
     2      1      2   0.795134  1.45800  0.32700 -0.28700
     3      1      3   0.045496 -0.97700  0.51100  0.06700
     4      1      4  -0.252855 -2.08400 -0.47500  0.41600
     5      1      5  -1.366271  2.66300 -0.42700 -0.34600
     6      1      6  -0.482636  1.50000  1.56700 -0.51100
     7      1      7   0.095615 -1.17900  1.01200 -0.89500
     8      1      8   0.095615 -0.92900  1.33100  0.83200
     9      1      9   0.106164 -2.98600  0.03600  0.81000
    10      1     10   0.106164 -1.65000 -1.17800  1.16500
    11      1     11   0.106164 -2.29900 -1.04500 -0.52200
    12      1     12   0.567384  3.48300 -0.19600  0.25400
    13      1     13   0.567385  2.77300 -1.23900 -0.99000

Bonds

     1      1      2      1
     2      2      3      1
     3      3      4      3
     4      4      5      2
     5      5      6      2
     6      6      7      3
     7      7      8      3
     8      8      9      4
     9      9     10      4
    10     10     11      4
    11     11     12      5
    12     12     13      5

Angles

     1      1      3      1      2
     2      2      4      3      1
     3      3      5      2      1
     4      4      6      2      1
     5      5      7      3      1
     6      6      8      3      1
     7      7      9      4      3
     8      8     10      4      3
     9      9     11      4      3
    10     10     12      5      2
    11     11     13      5      2
    12     12      7      3      4
    13     13      8      3      4
    14     14      6      2      5
    15     15      8      3      7
    16     16     10      4      9
    17     17     11      4      9
    18     18     11      4     10
    19     19     13      5     12

Dihedrals

     1      1      4      3      1      2
     2      2      5      2      1      3
     3      3      6      2      1      3
     4      4      7      3      1      2
     5      5      8      3      1      2
     6      6      9      4      3      1
     7      7     10      4      3      1
     8      8     11      4      3      1
     9      9     12      5      2      1
    10     10     13      5      2      1
    11     11     12      5      2      6
    12     12     13      5      2      6
    13     13      9      4      3      7
    14     14     10      4      3      7
    15     15     11      4      3      7
    16     16      9      4      3      8
    17     17     10      4      3      8
    18     18     11      4      3      8

Impropers

     1      1      1      2      5      6
     2      2      2      5     12     13


