LAMMPS data file generated with LigParGen (israel.cabezadevaca@yale.edu)

      12 atoms
      12 bonds
      18 angles
      24 dihedrals
       6 impropers

      12 atom types
      12 bond types
      18 angle types
      24 dihedral types
       6 improper types

   -2.272000    47.728000 xlo xhi
   -2.452000    47.548000 ylo yhi
   -0.118000    49.882000 zlo zhi

Masses

       1     14.007
       2     12.011
       3     12.011
       4     15.999
       5     14.007
       6     12.011
       7     12.011
       8     15.999
       9      1.008
      10      1.008
      11      1.008
      12      1.008

Pair Coeffs

       1      0.170  3.2500000
       2      0.070  3.5500000
       3      0.070  3.5500000
       4      0.210  2.9600000
       5      0.170  3.2500000
       6      0.076  3.5500000
       7      0.076  3.5500000
       8      0.210  2.9600000
       9      0.000  0.0000000
      10      0.000  0.0000000
      11      0.030  2.4200000
      12      0.030  2.4200000

Bond Coeffs

       1   418.0000     1.3880
       2   418.0000     1.3880
       3   570.0000     1.2290
       4   418.0000     1.3880
       5   448.0000     1.3650
       6   549.0000     1.3400
       7   570.0000     1.2290
       8   434.0000     1.0100
       9   434.0000     1.0100
      10   340.0000     1.0800
      11   340.0000     1.0800
      12   410.0000     1.4440

Angle Coeffs

       1     70.000    126.400
       2     80.000    120.600
       3     70.000    118.600
       4     70.000    121.600
       5     70.000    121.200
       6     80.000    120.600
       7     35.000    116.800
       8     35.000    116.800
       9     35.000    120.000
      10     35.000    120.000
      11     35.000    116.800
      12     80.000    120.600
      13     35.000    119.200
      14     35.000    120.000
      15     70.000    114.100
      16     80.000    125.300
      17     35.000    119.700
      18     85.000    120.700

Dihedral Coeffs

       1      0.000      4.900      0.000      0.000
       2      2.300      6.089      0.000      0.000
       3      0.000      7.250      0.000      0.000
       4      0.000      0.000      0.000      0.000
       5      0.000      4.900      0.000      0.000
       6      0.000      4.900      0.000      0.000
       7      0.000      4.900      0.000      0.000
       8      0.000      0.000      0.000      0.000
       9      0.000      7.250      0.000      0.000
      10      0.000      0.000      0.000      0.000
      11      0.000      4.900      0.000      0.000
      12      0.000      6.089      0.000      0.000
      13      0.000      4.900      0.000      0.000
      14      0.000      4.900      0.000      0.000
      15      0.000      5.000      0.000      0.000
      16      0.000      4.900      0.000      0.000
      17      2.500      6.000      0.000      0.000
      18      0.000      0.000      0.000      0.000
      19      0.000      5.000      0.000      0.000
      20      0.000     14.000      0.000      0.000
      21      0.000     14.000      0.000      0.000
      22      0.000      0.000      0.000      0.000
      23      0.000     14.000      0.000      0.000
      24      2.000      0.000      0.000      0.000

Improper Coeffs

       1      2.500      -1       2
       2     10.500      -1       2
       3     10.500      -1       2
       4      2.500      -1       2
       5      2.500      -1       2
       6      2.500      -1       2

Atoms

     1      1      1  -0.944812 -1.16400  0.66300  0.03400
     2      1      2   0.580964 -1.15100 -0.68600 -0.03000
     3      1      3   0.781087  0.00300  1.30600  0.06300
     4      1      4  -0.496150 -0.01000  2.56800  0.12300
     5      1      5  -0.818209  1.17800  0.68100  0.03000
     6      1      6   0.180937  1.18100 -0.66600 -0.03400
     7      1      7  -0.314996  0.02200 -1.39500 -0.06700
     8      1      8  -0.462898 -2.27200 -1.26000 -0.05600
     9      1      9   0.563097 -2.09300  1.17600  0.06100
    10      1     10   0.535107  2.10300  1.21600  0.05400
    11      1     11   0.183748  2.16500 -1.15000 -0.06000
    12      1     12   0.212125  0.03800 -2.45200 -0.11800

Bonds

     1      1      2      1
     2      2      3      1
     3      3      4      3
     4      4      5      3
     5      5      6      5
     6      6      7      6
     7      7      8      2
     8      8      9      1
     9      9     10      5
    10     10     11      6
    11     11     12      7
    12     12      7      2

Angles

     1      1      3      1      2
     2      2      4      3      1
     3      3      5      3      1
     4      4      6      5      3
     5      5      7      6      5
     6      6      8      2      1
     7      7      9      1      2
     8      8     10      5      3
     9      9     11      6      5
    10     10     12      7      6
    11     11      9      1      3
    12     12      5      3      4
    13     13     10      5      6
    14     14     11      6      7
    15     15      1      2      7
    16     16      8      2      7
    17     17      2      7     12
    18     18      6      7      2

Dihedrals

     1      1      4      3      1      2
     2      2      5      3      1      2
     3      3      6      5      3      1
     4      4      7      6      5      3
     5      5      8      2      1      3
     6      6      9      1      2      7
     7      7     10      5      3      1
     8      8     11      6      5      3
     9      9     12      7      6      5
    10     10      7      2      1      3
    11     11      9      1      3      4
    12     12      6      5      3      4
    13     13     10      5      3      4
    14     14      9      1      3      5
    15     15     10      5      6      7
    16     16      9      1      2      8
    17     17      6      7      2      8
    18     18     12      7      2      8
    19     19     11      6      5     10
    20     20      2      7      6     11
    21     21     12      7      6     11
    22     22      1      2      7     12
    23     23      5      6      7      2
    24     24      1      2      7      6

Impropers

     1      1      2      1      3      9
     2      2      1      2      7      8
     3      3      1      3      4      5
     4      4      3      5      6     10
     5      5      5      6      7     11
     6      6      6      7      2     12


