LAMMPS data file generated with LigParGen (israel.cabezadevaca@yale.edu)

       9 atoms
       9 bonds
      13 angles
      16 dihedrals
       4 impropers

       9 atom types
       9 bond types
      13 angle types
      16 dihedral types
       4 improper types

   -1.369000    48.631000 xlo xhi
   -2.118000    47.882000 ylo yhi
   -0.022000    49.978000 zlo zhi

Masses

       1     14.007
       2     12.011
       3     12.011
       4     14.007
       5     12.011
       6      1.008
       7      1.008
       8      1.008
       9      1.008

Pair Coeffs

       1      0.170  3.2500000
       2      0.070  3.5500000
       3      0.070  3.5500000
       4      0.170  3.2500000
       5      0.070  3.5500000
       6      0.030  2.4200000
       7      0.030  2.4200000
       8      0.000  0.0000000
       9      0.030  2.4200000

Bond Coeffs

       1   410.0000     1.3940
       2   520.0000     1.3700
       3   427.0000     1.3810
       4   477.0000     1.3430
       5   367.0000     1.0800
       6   367.0000     1.0800
       7   434.0000     1.0100
       8   367.0000     1.0800
       9   488.0000     1.3350

Angle Coeffs

       1     70.000    111.000
       2     70.000    106.300
       3     70.000    109.800
       4     35.000    121.700
       5     35.000    132.000
       6     35.000    124.000
       7     35.000    120.000
       8     70.000    104.000
       9     35.000    128.200
      10     35.000    121.600
      11     35.000    124.000
      12     35.000    120.000
      13     70.000    110.500

Dihedral Coeffs

       1      0.000      7.250      0.000      0.000
       2      0.000      5.000      0.000      0.000
       3      0.000      7.250      0.000      0.000
       4      0.000      7.250      0.000      0.000
       5      0.000      5.000      0.000      0.000
       6      0.000     10.000      0.000      0.000
       7      0.000     10.000      0.000      0.000
       8      0.000      7.250      0.000      0.000
       9      0.000      7.250      0.000      0.000
      10      0.000     10.750      0.000      0.000
      11      0.000      5.000      0.000      0.000
      12      0.000     10.750      0.000      0.000
      13      0.000      5.000      0.000      0.000
      14      0.000      5.000      0.000      0.000
      15      0.000     10.000      0.000      0.000
      16      0.000     10.000      0.000      0.000

Improper Coeffs

       1      2.500      -1       2
       2      2.500      -1       2
       3      2.500      -1       2
       4      2.500      -1       2

Atoms

     1      1      1  -0.434507 -1.36900  0.02300 -0.01100
     2      1      2  -0.049019 -0.63500 -1.09700 -0.01200
     3      1      3  -0.152800  0.67900 -0.69200  0.00100
     4      1      4  -0.512914  0.68800  0.67300  0.01000
     5      1      5   0.073417 -0.58100  1.11100  0.00300
     6      1      6   0.209539 -0.96400 -2.11800 -0.02200
     7      1      7   0.196082  1.56300 -1.31300  0.00400
     8      1      8   0.436101  1.52600  1.29200  0.02100
     9      1      9   0.234101 -0.90700  2.12200  0.00700

Bonds

     1      1      2      1
     2      2      3      2
     3      3      4      3
     4      4      5      4
     5      5      6      2
     6      6      7      3
     7      7      8      4
     8      8      9      5
     9      9      5      1

Angles

     1      1      3      2      1
     2      2      4      3      2
     3      3      5      4      3
     4      4      6      2      1
     5      5      7      3      2
     6      6      8      4      3
     7      7      9      5      4
     8      8      5      1      2
     9      9      6      2      3
    10     10      7      3      4
    11     11      8      4      5
    12     12      1      5      9
    13     13      4      5      1

Dihedrals

     1      1      4      3      2      1
     2      2      5      4      3      2
     3      3      6      2      1      5
     4      4      7      3      2      1
     5      5      8      4      3      2
     6      6      9      5      4      3
     7      7      4      5      1      2
     8      8      9      5      1      2
     9      9      5      1      2      3
    10     10      6      2      3      4
    11     11      7      3      4      5
    12     12      7      3      2      6
    13     13      8      4      3      7
    14     14      1      5      4      8
    15     15      9      5      4      8
    16     16      3      4      5      1

Impropers

     1      1      1      2      3      6
     2      2      2      3      4      7
     3      3      3      4      5      8
     4      4      4      5      1      9


