LAMMPS data file generated with LigParGen (israel.cabezadevaca@yale.edu)

      14 atoms
      13 bonds
      20 angles
      25 dihedrals
       2 impropers

      14 atom types
      13 bond types
      20 angle types
      25 dihedral types
       2 improper types

   -3.518000    46.482000 xlo xhi
   -1.281000    48.719000 ylo yhi
   -1.183000    48.817000 zlo zhi

Masses

       1     12.011
       2     12.011
       3     12.011
       4     15.999
       5     15.999
       6     12.011
       7     15.999
       8     15.999
       9      1.008
      10      1.008
      11      1.008
      12      1.008
      13      1.008
      14      1.008

Pair Coeffs

       1      0.066  3.5000000
       2      0.066  3.5000000
       3      0.070  3.5500000
       4      0.210  2.9600000
       5      0.170  3.1200000
       6      0.070  3.5500000
       7      0.170  3.1200000
       8      0.210  2.9600000
       9      0.000  0.0000000
      10      0.030  2.5000000
      11      0.030  2.5000000
      12      0.030  2.5000000
      13      0.030  2.5000000
      14      0.000  0.0000000

Bond Coeffs

       1   268.0000     1.5290
       2   317.0000     1.5220
       3   570.0000     1.2290
       4   450.0000     1.3640
       5   317.0000     1.5220
       6   450.0000     1.3640
       7   570.0000     1.2290
       8   553.0000     0.9450
       9   340.0000     1.0900
      10   340.0000     1.0900
      11   340.0000     1.0900
      12   340.0000     1.0900
      13   553.0000     0.9450

Angle Coeffs

       1     63.000    111.100
       2     80.000    120.400
       3     70.000    108.000
       4     63.000    111.100
       5     70.000    108.000
       6     80.000    120.400
       7     35.000    113.000
       8     37.500    110.700
       9     37.500    110.700
      10     37.500    110.700
      11     37.500    110.700
      12     35.000    113.000
      13     35.000    109.500
      14     35.000    109.500
      15     80.000    121.000
      16     35.000    109.500
      17     35.000    109.500
      18     80.000    121.000
      19     33.000    107.800
      20     33.000    107.800

Dihedral Coeffs

       1      0.000      0.000      0.000      0.000
       2      1.000      0.546      0.450      0.000
       3     -0.550      0.000      1.000      0.000
       4      1.000      0.546      0.450      0.000
       5      0.000      0.000      0.000      0.000
       6      1.500      5.500      0.000      0.000
       7      0.000      0.000     -0.100      0.000
       8      0.000      0.000     -0.100      0.000
       9      0.000      0.000     -0.100      0.000
      10      0.000      0.000     -0.100      0.000
      11      1.500      5.500      0.000      0.000
      12      0.000      0.000      0.000      0.000
      13      0.000      0.000      0.000      0.000
      14      0.000      5.500      0.000      0.000
      15      0.000      0.000      0.000      0.000
      16      0.000      0.000      0.000      0.000
      17      0.000      0.000      0.000      0.000
      18      0.000      0.000      0.000      0.000
      19      0.000      0.000      0.000      0.000
      20      0.000      0.000      0.000      0.000
      21      0.000      5.500      0.000      0.000
      22      0.000      0.000      0.300      0.000
      23      0.000      0.000      0.300      0.000
      24      0.000      0.000      0.300      0.000
      25      0.000      0.000      0.300      0.000

Improper Coeffs

       1     10.500      -1       2
       2     10.500      -1       2

Atoms

     1      1      1  -0.240234 -0.64400  0.10000 -0.14900
     2      1      2  -0.197799  0.59700 -0.18100  0.62500
     3      1      3   0.489101 -1.85900 -0.47600  0.43700
     4      1      4  -0.414863 -1.78600 -1.13100  1.49200
     5      1      5  -0.621270 -3.07500 -0.29200 -0.17700
     6      1      6   0.462607  1.76800  0.43600 -0.03800
     7      1      7  -0.621392  3.05300  0.32300  0.48100
     8      1      8  -0.445080  1.57500  1.07600 -1.10100
     9      1      9   0.484492  3.73800 -0.31200  0.09500
    10      1     10   0.154072  0.78000 -1.28100  0.74800
    11      1     11   0.154072  0.56300  0.25000  1.65900
    12      1     12   0.154176 -0.71200  1.19600 -0.30600
    13      1     13   0.154176 -0.48100 -0.32500 -1.18300
    14      1     14   0.487942 -3.51800  0.61700 -0.28500

Bonds

     1      1      2      1
     2      2      3      1
     3      3      4      3
     4      4      5      3
     5      5      6      2
     6      6      7      6
     7      7      8      6
     8      8      9      7
     9      9     10      2
    10     10     11      2
    11     11     12      1
    12     12     13      1
    13     13     14      5

Angles

     1      1      3      1      2
     2      2      4      3      1
     3      3      5      3      1
     4      4      6      2      1
     5      5      7      6      2
     6      6      8      6      2
     7      7      9      7      6
     8      8     10      2      1
     9      9     11      2      1
    10     10     12      1      2
    11     11     13      1      2
    12     12     14      5      3
    13     13     12      1      3
    14     14     13      1      3
    15     15      5      3      4
    16     16     10      2      6
    17     17     11      2      6
    18     18      8      6      7
    19     19     11      2     10
    20     20     13      1     12

Dihedrals

     1      1      4      3      1      2
     2      2      5      3      1      2
     3      3      6      2      1      3
     4      4      7      6      2      1
     5      5      8      6      2      1
     6      6      9      7      6      2
     7      7     10      2      1      3
     8      8     11      2      1      3
     9      9     12      1      2      6
    10     10     13      1      2      6
    11     11     14      5      3      1
    12     12     12      1      3      4
    13     13     13      1      3      4
    14     14     14      5      3      4
    15     15     12      1      3      5
    16     16     13      1      3      5
    17     17     10      2      6      7
    18     18     11      2      6      7
    19     19     10      2      6      8
    20     20     11      2      6      8
    21     21      9      7      6      8
    22     22     12      1      2     10
    23     23     13      1      2     10
    24     24     12      1      2     11
    25     25     13      1      2     11

Impropers

     1      1      1      3      4      5
     2      2      2      6      7      8


