LAMMPS data file generated with LigParGen (israel.cabezadevaca@yale.edu)

      13 atoms
      13 bonds
      19 angles
      24 dihedrals
       6 impropers

      13 atom types
      13 bond types
      19 angle types
      24 dihedral types
       6 improper types

   -2.882000    47.118000 xlo xhi
   -2.097000    47.903000 ylo yhi
   -0.894000    49.106000 zlo zhi

Masses

       1     14.007
       2     12.011
       3     12.011
       4     14.007
       5     12.011
       6     12.011
       7     14.007
       8     15.999
       9      1.008
      10      1.008
      11      1.008
      12      1.008
      13      1.008

Pair Coeffs

       1      0.170  3.2500000
       2      0.070  3.5500000
       3      0.076  3.5500000
       4      0.170  3.2500000
       5      0.076  3.5500000
       6      0.076  3.5500000
       7      0.170  3.2500000
       8      0.210  2.9600000
       9      0.000  0.0000000
      10      0.000  0.0000000
      11      0.030  2.4200000
      12      0.030  2.4200000
      13      0.000  0.0000000

Bond Coeffs

       1   457.0000     1.3580
       2   457.0000     1.2900
       3   481.0000     1.3400
       4   549.0000     1.3400
       5   549.0000     1.3400
       6   448.0000     1.3650
       7   570.0000     1.2290
       8   434.0000     1.0100
       9   434.0000     1.0100
      10   340.0000     1.0800
      11   340.0000     1.0800
      12   434.0000     1.0100
      13   418.0000     1.3880

Angle Coeffs

       1     70.000    120.500
       2     70.000    119.300
       3     70.000    121.500
       4     85.000    117.000
       5     70.000    121.200
       6     80.000    122.500
       7     35.000    119.800
       8     35.000    119.800
       9     35.000    120.000
      10     35.000    120.000
      11     35.000    119.200
      12     70.000    120.100
      13     35.000    120.000
      14     35.000    120.000
      15     70.000    118.600
      16     80.000    120.600
      17     35.000    120.000
      18     35.000    116.800
      19     70.000    121.600

Dihedral Coeffs

       1      0.000      7.250      0.000      0.000
       2      0.000      1.300      2.200      0.000
       3      0.797      4.193     -0.564     -0.282
       4      0.000     14.000      0.000      0.000
       5      0.000      4.900      0.000      0.000
       6      0.000      4.900      0.000      0.000
       7      0.000      4.900      0.000      0.000
       8      0.000      7.250      0.000      0.000
       9      0.000     14.000      0.000      0.000
      10      0.000      5.000      0.000      0.000
      11      0.000     14.000      0.000      0.000
      12      2.000      0.000      0.000      0.000
      13      0.000      7.250      0.000      0.000
      14      0.000      4.900      0.000      0.000
      15      0.000      4.900      0.000      0.000
      16      0.000      7.250      0.000      0.000
      17      0.000      6.089      0.000      0.000
      18      0.000      4.900      0.000      0.000
      19      0.000     14.000      0.000      0.000
      20      0.000      0.000      0.000      0.000
      21      0.000      5.000      0.000      0.000
      22      0.000      4.900      0.000      0.000
      23      0.000      0.000      0.000      0.000
      24      0.000      6.089      0.000      0.000

Improper Coeffs

       1     10.500      -1       2
       2      2.500      -1       2
       3      2.500      -1       2
       4      2.500      -1       2
       5      2.500      -1       2
       6      2.500      -1       2

Atoms

     1      1      1  -0.723092  0.04100 -1.28900 -0.14600
     2      1      2   0.710197 -1.28400 -1.10200 -0.00400
     3      1      3   0.713463  0.92900 -0.27700 -0.11300
     4      1      4  -1.234429  2.31800 -0.51400 -0.26800
     5      1      5  -0.365799  0.38100  0.98200  0.07900
     6      1      6   0.225275 -0.99000  1.15300  0.22500
     7      1      7  -0.798139 -1.83500  0.11000  0.18400
     8      1      8  -0.459427 -2.03100 -2.09700 -0.04700
     9      1      9   0.536110  2.83600 -1.27800  0.20400
    10      1     10   0.536110  2.84900  0.11900 -0.89400
    11      1     11   0.171832  1.06200  1.81300  0.11100
    12      1     12   0.178645 -1.39400  2.15000  0.37500
    13      1     13   0.509254 -2.88200  0.23100  0.29400

Bonds

     1      1      2      1
     2      2      3      1
     3      3      4      3
     4      4      5      3
     5      5      6      5
     6      6      7      6
     7      7      8      2
     8      8      9      4
     9      9     10      4
    10     10     11      5
    11     11     12      6
    12     12     13      7
    13     13      7      2

Angles

     1      1      3      1      2
     2      2      4      3      1
     3      3      5      3      1
     4      4      6      5      3
     5      5      7      6      5
     6      6      8      2      1
     7      7      9      4      3
     8      8     10      4      3
     9      9     11      5      3
    10     10     12      6      5
    11     11     13      7      6
    12     12      5      3      4
    13     13     11      5      6
    14     14     12      6      7
    15     15      1      2      7
    16     16      8      2      7
    17     17     10      4      9
    18     18      2      7     13
    19     19      6      7      2

Dihedrals

     1      1      4      3      1      2
     2      2      5      3      1      2
     3      3      6      5      3      1
     4      4      7      6      5      3
     5      5      8      2      1      3
     6      6      9      4      3      1
     7      7     10      4      3      1
     8      8     11      5      3      1
     9      9     12      6      5      3
    10     10     13      7      6      5
    11     11      7      2      1      3
    12     12      6      5      3      4
    13     13     11      5      3      4
    14     14      9      4      3      5
    15     15     10      4      3      5
    16     16     11      5      6      7
    17     17      6      7      2      8
    18     18     13      7      2      8
    19     19     12      6      5     11
    20     20      2      7      6     12
    21     21     13      7      6     12
    22     22      1      2      7     13
    23     23      5      6      7      2
    24     24      1      2      7      6

Impropers

     1      1      1      2      7      8
     2      2      1      3      4      5
     3      3      3      4      9     10
     4      4      3      5      6     11
     5      5      5      6      7     12
     6      6      6      7      2     13


